
#(C) 2024 by FIZ Karlsruhe - Leibniz Institute for Information Infrastructure.  All rights reserved.
data_113-ICSD
_database_code_ICSD 113
_audit_creation_date 1980-01-01
_audit_update_record 2011-08-01
_chemical_name_common 'Magnesium phosphide (1/4)'
_chemical_formula_structural 'Mg P4'
_chemical_formula_sum 'Mg1 P4'
_chemical_name_structure_type CdP4
_exptl_crystal_density_diffrn 2.53
_citation_title 'Magnesiumpolyphosphid Mg P4'
loop_
_citation_id
_citation_journal_full
_citation_year
_citation_journal_volume
_citation_page_first
_citation_page_last
_citation_journal_id_ASTM
primary 'Zeitschrift fuer Anorganische und Allgemeine Chemie (1950) (DE)' 1976
422 219 225 ZAACAB
loop_
_citation_author_citation_id
_citation_author_name
primary 'von Schnering, H.G.'
primary 'Menge, G.'
_cell_length_a 5.144(2)
_cell_length_b 5.085(2)
_cell_length_c 7.526(3)
_cell_angle_alpha 90.
_cell_angle_beta 98.66(3)
_cell_angle_gamma 90.
_cell_volume 194.62
_cell_formula_units_Z 2
_space_group_name_H-M_alt 'P 1 21/c 1'
_space_group_IT_number 14
loop_
_space_group_symop_id
_space_group_symop_operation_xyz
1 'x, -y+1/2, z+1/2'
2 '-x, -y, -z'
3 '-x, y+1/2, -z+1/2'
4 'x, y, z'
loop_
_atom_type_symbol
_atom_type_oxidation_number
Mg0+ 0
P0+ 0
loop_
_atom_site_label
_atom_site_type_symbol
_atom_site_symmetry_multiplicity
_atom_site_Wyckoff_symbol
_atom_site_fract_x
_atom_site_fract_y
_atom_site_fract_z
_atom_site_B_iso_or_equiv
_atom_site_occupancy
Mg1 Mg0+ 2 a 0 0 0 . 1.
P1 P0+ 4 e 0.7481(4) 0.2928(4) 0.7461(3) . 1.
P2 P0+ 4 e 0.6036(3) 0.8904(4) 0.4013(2) . 1.
loop_
_atom_site_aniso_label
_atom_site_aniso_type_symbol
_atom_site_aniso_B_11
_atom_site_aniso_B_22
_atom_site_aniso_B_33
_atom_site_aniso_B_12
_atom_site_aniso_B_13
_atom_site_aniso_B_23
Mg1 Mg0+ 1.07 0.52 0.92 0.36 0.23 0.04
P1 P0+ 0.69 0.38 0.7 0.07 0.16 -0.1
P2 P0+ 0.59 0.33 0.57 -0.1 0.11 0.05
#End of TTdata_113-ICSD